MODEL 1
REMARK VINA RESULT:    -8.043      0.000      0.000
REMARK INTER + INTRA:         -12.458
REMARK INTER:                 -11.334
REMARK INTRA:                  -1.124
REMARK UNBOUND:                -1.124
REMARK SMILES Cc1ccc(NC(=O)c2ccc(CN3CCN(C)CC3)cc2)cc1Nc1nccc(-c2cccnc2)n1
REMARK SMILES IDX 6 1 7 2 8 3 5 5 2 6 3 7 24 8 4 9 23 10 1 11 25 12 26 14
REMARK SMILES IDX 27 15 37 16 28 17 30 18 29 19 31 20 32 21 36 22 33 23 35 24
REMARK SMILES IDX 34 25 9 26 10 27 22 28 11 29 21 30 12 31 13 32 14 33 15 34
REMARK SMILES IDX 20 35 16 36 19 37 17 38 18 39
REMARK H PARENT 6 4 25 13
ROOT
ATOM      1  N   UNL     1       3.140 -10.827  -0.622  1.00  0.00    -0.322 N 
ATOM      2  C   UNL     1       3.181 -11.441   0.613  1.00  0.00    +0.255 C 
ATOM      3  O   UNL     1       3.757 -11.055   1.621  1.00  0.00    -0.269 OA
ATOM      4  H   UNL     1       2.725 -11.352  -1.381  1.00  0.00    +0.170 HD
ENDROOT
BRANCH   1   5
ATOM      5  C   UNL     1       3.699  -9.582  -0.981  1.00  0.00    +0.043 A 
ATOM      6  C   UNL     1       4.631  -7.028  -1.711  1.00  0.00    -0.027 A 
ATOM      7  C   UNL     1       5.524  -8.049  -1.346  1.00  0.00    +0.008 A 
ATOM      8  C   UNL     1       3.239  -7.277  -1.712  1.00  0.00    +0.046 A 
ATOM      9  C   UNL     1       5.063  -9.315  -0.982  1.00  0.00    +0.026 A 
ATOM     10  C   UNL     1       2.806  -8.561  -1.344  1.00  0.00    +0.052 A 
ATOM     11  C   UNL     1       5.201  -5.690  -2.105  1.00  0.00    +0.046 C 
BRANCH   8  12
ATOM     12  N   UNL     1       2.347  -6.266  -2.100  1.00  0.00    -0.324 N 
ATOM     13  H   UNL     1       2.508  -5.827  -2.993  1.00  0.00    +0.170 HD
BRANCH  12  14
ATOM     14  C   UNL     1       1.253  -5.644  -1.505  1.00  0.00    +0.227 A 
ATOM     15  N   UNL     1       1.279  -4.363  -1.117  1.00  0.00    -0.221 NA
ATOM     16  N   UNL     1       0.178  -6.434  -1.346  1.00  0.00    -0.213 NA
ATOM     17  C   UNL     1       0.171  -3.869  -0.543  1.00  0.00    +0.117 A 
ATOM     18  C   UNL     1      -0.934  -5.912  -0.776  1.00  0.00    +0.077 A 
ATOM     19  C   UNL     1      -0.972  -4.602  -0.347  1.00  0.00    +0.049 A 
BRANCH  18  20
ATOM     20  C   UNL     1      -2.072  -6.839  -0.642  1.00  0.00    +0.019 A 
ATOM     21  C   UNL     1      -2.535  -7.602  -1.725  1.00  0.00    +0.013 A 
ATOM     22  C   UNL     1      -2.768  -7.015   0.556  1.00  0.00    +0.121 A 
ATOM     23  C   UNL     1      -3.611  -8.477  -1.577  1.00  0.00    +0.021 A 
ATOM     24  N   UNL     1      -3.812  -7.862   0.740  1.00  0.00    -0.264 NA
ATOM     25  C   UNL     1      -4.209  -8.575  -0.334  1.00  0.00    +0.111 A 
ENDBRANCH  18  20
ENDBRANCH  12  14
ENDBRANCH   8  12
ENDBRANCH   1   5
BRANCH   2  26
ATOM     26  C   UNL     1       2.461 -12.740   0.668  1.00  0.00    +0.040 A 
ATOM     27  C   UNL     1       1.266 -12.817   1.389  1.00  0.00    +0.014 A 
ATOM     28  C   UNL     1       2.946 -13.864  -0.008  1.00  0.00    +0.014 A 
ATOM     29  C   UNL     1       0.573 -14.027   1.461  1.00  0.00    +0.006 A 
ATOM     30  C   UNL     1       2.243 -15.071   0.057  1.00  0.00    +0.006 A 
ATOM     31  C   UNL     1       1.057 -15.170   0.802  1.00  0.00    -0.034 A 
BRANCH  31  32
ATOM     32  C   UNL     1       0.293 -16.477   0.876  1.00  0.00    +0.120 C 
BRANCH  32  33
ATOM     33  N   UNL     1      -0.707 -16.601   1.937  1.00  0.00    -0.297 NA
ATOM     34  C   UNL     1      -0.459 -17.683   2.899  1.00  0.00    +0.100 C 
ATOM     35  C   UNL     1      -2.101 -16.580   1.496  1.00  0.00    +0.100 C 
ATOM     36  C   UNL     1      -1.684 -18.030   3.791  1.00  0.00    +0.099 C 
ATOM     37  C   UNL     1      -3.093 -16.414   2.679  1.00  0.00    +0.099 C 
ATOM     38  N   UNL     1      -2.661 -16.945   3.992  1.00  0.00    -0.304 NA
ATOM     39  C   UNL     1      -2.093 -15.882   4.824  1.00  0.00    +0.105 C 
ENDBRANCH  32  33
ENDBRANCH  31  32
ENDBRANCH   2  26
TORSDOF 7
ENDMDL
