MODEL 1
REMARK VINA RESULT:    -7.374      0.000      0.000
REMARK INTER + INTRA:         -12.488
REMARK INTER:                 -11.685
REMARK INTRA:                  -0.803
REMARK UNBOUND:                -0.803
REMARK SMILES C#Cc1cccc(Nc2ncnc3cc(OCCOC)c(OCCOC)cc23)c1
REMARK SMILES IDX 15 1 14 2 13 3 12 4 11 5 10 6 9 7 28 8 27 9 21 10 16 11
REMARK SMILES IDX 17 12 18 13 19 14 20 15 22 16 23 17 24 18 25 19 26 20 8 21
REMARK SMILES IDX 7 23 6 24 29 25 5 26 3 27 4 28 2 29 1 30
REMARK H PARENT 8 22
ROOT
ATOM      1  C   UNL     1       0.164  -6.074  -1.245  1.00  0.00    +0.163 A 
ATOM      2  C   UNL     1       1.308  -5.363  -0.871  1.00  0.00    +0.079 A 
ATOM      3  C   UNL     1       2.589  -5.817  -1.166  1.00  0.00    +0.080 A 
ATOM      4  N   UNL     1       3.632  -5.070  -0.795  1.00  0.00    -0.236 NA
ATOM      5  C   UNL     1       4.850  -5.535  -1.097  1.00  0.00    +0.224 A 
ATOM      6  N   UNL     1       5.122  -6.673  -1.737  1.00  0.00    -0.219 NA
ATOM      7  C   UNL     1       4.067  -7.420  -2.105  1.00  0.00    +0.141 A 
ATOM      8  C   UNL     1       2.739  -7.038  -1.836  1.00  0.00    +0.047 A 
ATOM      9  C   UNL     1       1.587  -7.776  -2.198  1.00  0.00    +0.064 A 
ATOM     10  C   UNL     1       0.312  -7.284  -1.930  1.00  0.00    +0.162 A 
ENDROOT
BRANCH   1  11
ATOM     11  O   UNL     1      -1.125  -5.688  -0.986  1.00  0.00    -0.487 OA
BRANCH  11  12
ATOM     12  C   UNL     1      -1.343  -4.586  -0.102  1.00  0.00    +0.258 C 
BRANCH  12  13
ATOM     13  C   UNL     1      -2.438  -3.643  -0.608  1.00  0.00    +0.201 C 
BRANCH  13  14
ATOM     14  O   UNL     1      -2.056  -2.293  -0.326  1.00  0.00    -0.381 OA
ATOM     15  C   UNL     1      -3.170  -1.409  -0.396  1.00  0.00    +0.195 C 
ENDBRANCH  13  14
ENDBRANCH  12  13
ENDBRANCH  11  12
ENDBRANCH   1  11
BRANCH  10  16
ATOM     16  O   UNL     1      -0.827  -7.957  -2.283  1.00  0.00    -0.487 OA
BRANCH  16  17
ATOM     17  C   UNL     1      -0.952  -9.292  -1.768  1.00  0.00    +0.258 C 
BRANCH  17  18
ATOM     18  C   UNL     1      -2.137  -9.485  -0.806  1.00  0.00    +0.201 C 
BRANCH  18  19
ATOM     19  O   UNL     1      -1.991  -8.849   0.469  1.00  0.00    -0.381 OA
ATOM     20  C   UNL     1      -3.025  -7.927   0.776  1.00  0.00    +0.195 C 
ENDBRANCH  18  19
ENDBRANCH  17  18
ENDBRANCH  16  17
ENDBRANCH  10  16
BRANCH   7  21
ATOM     21  N   UNL     1       4.358  -8.624  -2.792  1.00  0.00    -0.340 N 
ATOM     22  H   UNL     1       5.339  -8.623  -3.053  1.00  0.00    +0.168 HD
BRANCH  21  23
ATOM     23  C   UNL     1       3.960  -9.909  -2.346  1.00  0.00    +0.041 A 
ATOM     24  C   UNL     1       3.979 -11.028  -3.194  1.00  0.00    +0.026 A 
ATOM     25  C   UNL     1       3.642 -10.101  -0.994  1.00  0.00    +0.043 A 
ATOM     26  C   UNL     1       3.619 -12.292  -2.720  1.00  0.00    +0.003 A 
ATOM     27  C   UNL     1       3.278 -11.366  -0.517  1.00  0.00    +0.026 A 
ATOM     28  C   UNL     1       3.261 -12.460  -1.384  1.00  0.00    +0.017 A 
ATOM     29  C   UNL     1       2.929 -11.537   0.860  1.00  0.00    -0.070 C 
ATOM     30  C   UNL     1       2.637 -11.680   2.017  1.00  0.00    +0.010 C 
ENDBRANCH  21  23
ENDBRANCH   7  21
TORSDOF 10
ENDMDL
