MODEL 1
REMARK VINA RESULT:    -9.095      0.000      0.000
REMARK INTER + INTRA:         -17.620
REMARK INTER:                 -14.944
REMARK INTRA:                  -2.676
REMARK UNBOUND:                -2.676
REMARK SMILES CS(=O)(=O)CCNCc1ccc(-c2ccc3ncnc(Nc4ccc(OCc5cccc(F)c5)c(Cl)c4)c3c2)o1
REMARK SMILES IDX 13 1 14 2 15 3 16 4 17 5 18 6 19 7 20 8 38 9 39 10 12 11
REMARK SMILES IDX 9 12 10 13 40 14 11 15 8 16 7 17 6 19 5 20 2 21 3 22 4 23
REMARK SMILES IDX 1 24 21 25 22 27 23 28 37 29 24 30 35 31 25 32 36 33 26 34
REMARK SMILES IDX 27 35 28 36 29 37 34 38 30 39 32 40 31 41 33 42
REMARK H PARENT 7 18 21 26
ROOT
ATOM      1  C   UNL     1       2.414  -5.949  -1.285  1.00  0.00    +0.018 A 
ATOM      2  C   UNL     1       3.589  -5.380  -0.787  1.00  0.00    +0.014 A 
ATOM      3  C   UNL     1       4.840  -5.920  -1.110  1.00  0.00    +0.030 A 
ATOM      4  C   UNL     1       4.969  -7.036  -1.923  1.00  0.00    +0.076 A 
ATOM      5  N   UNL     1       6.196  -7.487  -2.197  1.00  0.00    -0.236 NA
ATOM      6  C   UNL     1       6.277  -8.558  -2.992  1.00  0.00    +0.224 A 
ATOM      7  N   UNL     1       5.250  -9.224  -3.528  1.00  0.00    -0.219 NA
ATOM      8  C   UNL     1       4.016  -8.773  -3.233  1.00  0.00    +0.141 A 
ATOM      9  C   UNL     1       3.808  -7.639  -2.422  1.00  0.00    +0.044 A 
ATOM     10  C   UNL     1       2.538  -7.080  -2.103  1.00  0.00    +0.026 A 
ENDROOT
BRANCH   1  11
ATOM     11  C   UNL     1       1.103  -5.385  -0.976  1.00  0.00    +0.134 A 
ATOM     12  C   UNL     1      -1.065  -5.567  -0.621  1.00  0.00    +0.118 A 
ATOM     13  C   UNL     1      -0.762  -4.231  -0.480  1.00  0.00    +0.047 A 
ATOM     14  O   UNL     1       0.062  -6.271  -0.927  1.00  0.00    -0.460 OA
ATOM     15  C   UNL     1       0.632  -4.115  -0.706  1.00  0.00    +0.051 A 
BRANCH  12  16
ATOM     16  C   UNL     1      -2.325  -6.352  -0.516  1.00  0.00    +0.157 C 
BRANCH  16  17
ATOM     17  N   UNL     1      -2.305  -7.167   0.704  1.00  0.00    -0.309 NA
ATOM     18  H   UNL     1      -2.215  -6.517   1.489  1.00  0.00    +0.123 HD
BRANCH  17  19
ATOM     19  C   UNL     1      -3.537  -7.947   0.876  1.00  0.00    +0.097 C 
BRANCH  19  20
ATOM     20  C   UNL     1      -3.274  -9.421   1.148  1.00  0.00    +0.152 C 
BRANCH  20  21
ATOM     21  S   UNL     1      -2.139 -10.129  -0.035  1.00  0.00    +0.148 S 
ATOM     22  O   UNL     1      -2.489  -9.640  -1.354  1.00  0.00    -0.229 OA
ATOM     23  O   UNL     1      -0.800  -9.937   0.487  1.00  0.00    -0.229 OA
ATOM     24  C   UNL     1      -2.479 -11.873   0.016  1.00  0.00    +0.158 C 
ENDBRANCH  20  21
ENDBRANCH  19  20
ENDBRANCH  17  19
ENDBRANCH  16  17
ENDBRANCH  12  16
ENDBRANCH   1  11
BRANCH   8  25
ATOM     25  N   UNL     1       2.884  -9.474  -3.734  1.00  0.00    -0.340 N 
ATOM     26  H   UNL     1       2.160  -8.796  -3.954  1.00  0.00    +0.168 HD
BRANCH  25  27
ATOM     27  C   UNL     1       2.337 -10.692  -3.274  1.00  0.00    +0.041 A 
ATOM     28  C   UNL     1       1.129 -10.759  -2.574  1.00  0.00    +0.030 A 
ATOM     29  C   UNL     1       3.084 -11.869  -3.400  1.00  0.00    +0.050 A 
ATOM     30  C   UNL     1       0.645 -11.971  -2.060  1.00  0.00    +0.050 A 
ATOM     31  C   UNL     1       2.605 -13.083  -2.891  1.00  0.00    +0.085 A 
ATOM     32  C   UNL     1       1.379 -13.148  -2.215  1.00  0.00    +0.138 A 
ATOM     33 Cl   UNL     1       3.584 -14.493  -3.116  1.00  0.00    -0.080 Cl
BRANCH  32  34
ATOM     34  O   UNL     1       0.992 -14.375  -1.749  1.00  0.00    -0.487 OA
BRANCH  34  35
ATOM     35  C   UNL     1       1.640 -14.880  -0.584  1.00  0.00    +0.265 C 
BRANCH  35  36
ATOM     36  C   UNL     1       1.574 -13.829   0.498  1.00  0.00    -0.008 A 
ATOM     37  C   UNL     1       0.437 -13.721   1.318  1.00  0.00    +0.007 A 
ATOM     38  C   UNL     1       2.630 -12.929   0.690  1.00  0.00    +0.046 A 
ATOM     39  C   UNL     1       0.361 -12.739   2.309  1.00  0.00    +0.003 A 
ATOM     40  C   UNL     1       2.543 -11.955   1.679  1.00  0.00    +0.123 A 
ATOM     41  C   UNL     1       1.419 -11.851   2.489  1.00  0.00    +0.039 A 
ATOM     42  F   UNL     1       3.561 -11.100   1.850  1.00  0.00    -0.207 F 
ENDBRANCH  35  36
ENDBRANCH  34  35
ENDBRANCH  32  34
ENDBRANCH  25  27
ENDBRANCH   8  25
TORSDOF 11
ENDMDL
