MODEL 1
REMARK VINA RESULT:    -8.273      0.000      0.000
REMARK INTER + INTRA:         -13.043
REMARK INTER:                 -11.416
REMARK INTRA:                  -1.626
REMARK UNBOUND:                -1.626
REMARK SMILES C=CC(=O)N1CCN(c2nc(=O)n(-c3c(C)ccnc3C(C)C)c3nc(-c4c(O)cccc4F)c(F)cc23)[C@H](C)C1
REMARK SMILES IDX 9 1 10 2 11 3 12 4 13 5 24 6 25 7 26 8 35 9 36 10 37 11
REMARK SMILES IDX 38 12 8 13 5 14 41 15 6 16 39 17 7 18 40 19 3 20 4 21 2 22
REMARK SMILES IDX 1 23 14 24 15 25 20 26 17 27 19 28 18 29 16 30 21 31 22 32
REMARK SMILES IDX 23 33 27 34 28 35 33 36 30 37 32 38 31 39 34 40 29 41
REMARK H PARENT 29 42
ROOT
ATOM      1  C   UNL     1      -0.285  -7.906  -1.761  1.00  0.00    +0.145 C 
ATOM      2  N   UNL     1      -0.978  -9.000  -1.698  1.00  0.00    -0.175 NA
ATOM      3  C   UNL     1      -0.390 -10.240  -1.647  1.00  0.00    +0.355 C 
ATOM      4  O   UNL     1      -1.094 -11.237  -1.497  1.00  0.00    -0.245 OA
ATOM      5  N   UNL     1       0.991 -10.331  -1.765  1.00  0.00    -0.242 N 
ATOM      6  C   UNL     1       1.804  -9.181  -1.813  1.00  0.00    +0.153 A 
ATOM      7  N   UNL     1       3.157  -9.310  -1.857  1.00  0.00    -0.226 NA
ATOM      8  C   UNL     1       3.914  -8.185  -1.959  1.00  0.00    +0.115 A 
ATOM      9  C   UNL     1       3.347  -6.920  -2.046  1.00  0.00    +0.150 A 
ATOM     10  F   UNL     1       4.102  -5.820  -2.180  1.00  0.00    -0.205 F 
ATOM     11  C   UNL     1       1.967  -6.791  -2.000  1.00  0.00    +0.057 A 
ATOM     12  C   UNL     1       1.190  -7.940  -1.850  1.00  0.00    +0.064 A 
ENDROOT
BRANCH   1  13
ATOM     13  N   UNL     1      -0.942  -6.674  -1.752  1.00  0.00    -0.350 N 
ATOM     14  N   UNL     1      -2.579  -4.300  -1.412  1.00  0.00    -0.335 N 
ATOM     15  C   UNL     1      -1.205  -4.341  -0.906  1.00  0.00    +0.144 C 
ATOM     16  C   UNL     1      -2.848  -5.249  -2.503  1.00  0.00    +0.141 C 
ATOM     17  C   UNL     1      -0.710  -5.769  -0.586  1.00  0.00    +0.100 C 
ATOM     18  C   UNL     1      -2.360  -6.672  -2.193  1.00  0.00    +0.140 C 
ATOM     19  C   UNL     1      -1.351  -6.307   0.698  1.00  0.00    +0.033 C 
BRANCH  14  20
ATOM     20  C   UNL     1      -3.251  -3.093  -1.269  1.00  0.00    +0.246 C 
ATOM     21  O   UNL     1      -4.277  -2.819  -1.886  1.00  0.00    -0.270 OA
BRANCH  20  22
ATOM     22  C   UNL     1      -2.650  -2.096  -0.342  1.00  0.00    +0.063 C 
ATOM     23  C   UNL     1      -3.338  -1.004   0.014  1.00  0.00    +0.014 C 
ENDBRANCH  20  22
ENDBRANCH  14  20
ENDBRANCH   1  13
BRANCH   5  24
ATOM     24  C   UNL     1       1.644 -11.582  -1.606  1.00  0.00    +0.077 A 
ATOM     25  C   UNL     1       1.955 -12.345  -2.758  1.00  0.00    -0.023 A 
ATOM     26  C   UNL     1       2.015 -12.084  -0.343  1.00  0.00    +0.067 A 
ATOM     27  C   UNL     1       2.599 -13.575  -2.600  1.00  0.00    +0.025 A 
ATOM     28  N   UNL     1       2.646 -13.288  -0.213  1.00  0.00    -0.259 NA
ATOM     29  C   UNL     1       2.918 -13.996  -1.325  1.00  0.00    +0.112 A 
ATOM     30  C   UNL     1       1.607 -11.884  -4.147  1.00  0.00    +0.047 C 
BRANCH  26  31
ATOM     31  C   UNL     1       1.784 -11.402   0.995  1.00  0.00    +0.034 C 
ATOM     32  C   UNL     1       0.493 -11.820   1.699  1.00  0.00    +0.014 C 
ATOM     33  C   UNL     1       2.984 -11.466   1.940  1.00  0.00    +0.014 C 
ENDBRANCH  26  31
ENDBRANCH   5  24
BRANCH   8  34
ATOM     34  C   UNL     1       5.358  -8.392  -1.976  1.00  0.00    +0.081 A 
ATOM     35  C   UNL     1       6.196  -7.869  -0.978  1.00  0.00    +0.128 A 
ATOM     36  C   UNL     1       5.955  -9.130  -3.004  1.00  0.00    +0.136 A 
ATOM     37  C   UNL     1       7.577  -8.083  -1.003  1.00  0.00    +0.047 A 
ATOM     38  C   UNL     1       7.332  -9.351  -3.041  1.00  0.00    +0.040 A 
ATOM     39  C   UNL     1       8.144  -8.829  -2.036  1.00  0.00    +0.007 A 
ATOM     40  F   UNL     1       5.207  -9.626  -4.001  1.00  0.00    -0.206 F 
BRANCH  35  41
ATOM     41  O   UNL     1       5.644  -7.134   0.039  1.00  0.00    -0.507 OA
ATOM     42  H   UNL     1       4.780  -6.795  -0.247  1.00  0.00    +0.293 HD
ENDBRANCH  35  41
ENDBRANCH   8  34
TORSDOF 7
ENDMDL
